<?xml version="1.0" encoding="UTF-8"?>

<!-- generated on 08/05/16 13:07:28 by SUMO Version 0.26.0
<?xml version="1.0" encoding="UTF-8"?>

<configuration xmlns:xsi="http://www.w3.org/2001/XMLSchema-instance" xsi:noNamespaceSchemaLocation="http://sumo.dlr.de/xsd/sumoConfiguration.xsd">

    <input>
        <net-file value="data/cross.net.xml"/>
        <route-files value="data/cross.rou.xml"/>
        <additional-files value="data/cross.det.xml"/>
    </input>

    <output>
        <tripinfo-output value="tripinfo.xml"/>
    </output>

    <time>
        <begin value="0"/>
    </time>

    <report>
        <verbose value="true"/>
        <no-step-log value="true"/>
    </report>

    <traci_server>
        <remote-port value="8873"/>
    </traci_server>

</configuration>
-->

<detector xmlns:xsi="http://www.w3.org/2001/XMLSchema-instance" xsi:noNamespaceSchemaLocation="http://sumo.dlr.de/xsd/det_e1_file.xsd">
   <interval begin="0.00" end="30.00" id="0" nVehContrib="0" flow="0.00" occupancy="0.00" speed="-1.00" length="-1.00" nVehEntered="0"/>
   <interval begin="0.00" end="30.00" id="1" nVehContrib="0" flow="0.00" occupancy="0.00" speed="-1.00" length="-1.00" nVehEntered="0"/>
   <interval begin="0.00" end="30.00" id="2" nVehContrib="0" flow="0.00" occupancy="0.00" speed="-1.00" length="-1.00" nVehEntered="0"/>
   <interval begin="0.00" end="30.00" id="3" nVehContrib="0" flow="0.00" occupancy="0.00" speed="-1.00" length="-1.00" nVehEntered="0"/>
   <interval begin="0.00" end="30.00" id="4" nVehContrib="0" flow="0.00" occupancy="0.00" speed="-1.00" length="-1.00" nVehEntered="0"/>
   <interval begin="0.00" end="30.00" id="5" nVehContrib="0" flow="0.00" occupancy="0.00" speed="-1.00" length="-1.00" nVehEntered="0"/>
   <interval begin="0.00" end="30.00" id="6" nVehContrib="0" flow="0.00" occupancy="0.00" speed="-1.00" length="-1.00" nVehEntered="0"/>
   <interval begin="0.00" end="30.00" id="7" nVehContrib="0" flow="0.00" occupancy="0.00" speed="-1.00" length="-1.00" nVehEntered="0"/>
   <interval begin="0.00" end="30.00" id="8" nVehContrib="0" flow="0.00" occupancy="0.00" speed="-1.00" length="-1.00" nVehEntered="0"/>
   <interval begin="0.00" end="30.00" id="9" nVehContrib="0" flow="0.00" occupancy="0.00" speed="-1.00" length="-1.00" nVehEntered="0"/>
   <interval begin="0.00" end="30.00" id="10" nVehContrib="0" flow="0.00" occupancy="0.00" speed="-1.00" length="-1.00" nVehEntered="0"/>
   <interval begin="0.00" end="30.00" id="11" nVehContrib="0" flow="0.00" occupancy="0.00" speed="-1.00" length="-1.00" nVehEntered="0"/>
   <interval begin="0.00" end="30.00" id="12" nVehContrib="0" flow="0.00" occupancy="0.00" speed="-1.00" length="-1.00" nVehEntered="0"/>
   <interval begin="0.00" end="30.00" id="13" nVehContrib="0" flow="0.00" occupancy="0.00" speed="-1.00" length="-1.00" nVehEntered="0"/>
   <interval begin="0.00" end="30.00" id="14" nVehContrib="0" flow="0.00" occupancy="0.00" speed="-1.00" length="-1.00" nVehEntered="0"/>
   <interval begin="0.00" end="30.00" id="15" nVehContrib="0" flow="0.00" occupancy="0.00" speed="-1.00" length="-1.00" nVehEntered="0"/>
   <interval begin="30.00" end="60.00" id="0" nVehContrib="0" flow="0.00" occupancy="0.00" speed="-1.00" length="-1.00" nVehEntered="0"/>
   <interval begin="30.00" end="60.00" id="1" nVehContrib="0" flow="0.00" occupancy="0.00" speed="-1.00" length="-1.00" nVehEntered="0"/>
   <interval begin="30.00" end="60.00" id="2" nVehContrib="1" flow="120.00" occupancy="1.01" speed="16.43" length="5.00" nVehEntered="1"/>
   <interval begin="30.00" end="60.00" id="3" nVehContrib="1" flow="120.00" occupancy="1.02" speed="16.41" length="5.00" nVehEntered="1"/>
   <interval begin="30.00" end="60.00" id="4" nVehContrib="0" flow="0.00" occupancy="0.00" speed="-1.00" length="-1.00" nVehEntered="0"/>
   <interval begin="30.00" end="60.00" id="5" nVehContrib="0" flow="0.00" occupancy="0.00" speed="-1.00" length="-1.00" nVehEntered="0"/>
   <interval begin="30.00" end="60.00" id="6" nVehContrib="0" flow="0.00" occupancy="0.00" speed="-1.00" length="-1.00" nVehEntered="0"/>
   <interval begin="30.00" end="60.00" id="7" nVehContrib="0" flow="0.00" occupancy="0.00" speed="-1.00" length="-1.00" nVehEntered="0"/>
   <interval begin="30.00" end="60.00" id="8" nVehContrib="1" flow="120.00" occupancy="1.02" speed="16.40" length="5.00" nVehEntered="1"/>
   <interval begin="30.00" end="60.00" id="9" nVehContrib="2" flow="240.00" occupancy="2.04" speed="16.36" length="5.00" nVehEntered="2"/>
   <interval begin="30.00" end="60.00" id="10" nVehContrib="0" flow="0.00" occupancy="0.00" speed="-1.00" length="-1.00" nVehEntered="0"/>
   <interval begin="30.00" end="60.00" id="11" nVehContrib="0" flow="0.00" occupancy="0.00" speed="-1.00" length="-1.00" nVehEntered="0"/>
   <interval begin="30.00" end="60.00" id="12" nVehContrib="0" flow="0.00" occupancy="0.00" speed="-1.00" length="-1.00" nVehEntered="0"/>
   <interval begin="30.00" end="60.00" id="13" nVehContrib="0" flow="0.00" occupancy="0.00" speed="-1.00" length="-1.00" nVehEntered="0"/>
   <interval begin="30.00" end="60.00" id="14" nVehContrib="0" flow="0.00" occupancy="0.00" speed="-1.00" length="-1.00" nVehEntered="0"/>
   <interval begin="30.00" end="60.00" id="15" nVehContrib="0" flow="0.00" occupancy="0.00" speed="-1.00" length="-1.00" nVehEntered="0"/>
   <interval begin="60.00" end="90.00" id="0" nVehContrib="3" flow="360.00" occupancy="3.40" speed="14.89" length="5.00" nVehEntered="3"/>
   <interval begin="60.00" end="90.00" id="1" nVehContrib="0" flow="0.00" occupancy="0.00" speed="-1.00" length="-1.00" nVehEntered="0"/>
   <interval begin="60.00" end="90.00" id="2" nVehContrib="0" flow="0.00" occupancy="0.00" speed="-1.00" length="-1.00" nVehEntered="0"/>
   <interval begin="60.00" end="90.00" id="3" nVehContrib="0" flow="0.00" occupancy="0.00" speed="-1.00" length="-1.00" nVehEntered="0"/>
   <interval begin="60.00" end="90.00" id="4" nVehContrib="1" flow="120.00" occupancy="1.00" speed="16.58" length="5.00" nVehEntered="1"/>
   <interval begin="60.00" end="90.00" id="5" nVehContrib="3" flow="360.00" occupancy="4.19" speed="11.94" length="5.00" nVehEntered="3"/>
   <interval begin="60.00" end="90.00" id="6" nVehContrib="1" flow="120.00" occupancy="1.26" speed="13.19" length="5.00" nVehEntered="1"/>
   <interval begin="60.00" end="90.00" id="7" nVehContrib="3" flow="360.00" occupancy="3.04" speed="16.46" length="5.00" nVehEntered="3"/>
   <interval begin="60.00" end="90.00" id="8" nVehContrib="2" flow="240.00" occupancy="2.03" speed="16.41" length="5.00" nVehEntered="2"/>
   <interval begin="60.00" end="90.00" id="9" nVehContrib="1" flow="120.00" occupancy="1.02" speed="16.41" length="5.00" nVehEntered="1"/>
   <interval begin="60.00" end="90.00" id="10" nVehContrib="0" flow="0.00" occupancy="0.00" speed="-1.00" length="-1.00" nVehEntered="0"/>
   <interval begin="60.00" end="90.00" id="11" nVehContrib="1" flow="120.00" occupancy="1.33" speed="12.54" length="5.00" nVehEntered="1"/>
   <interval begin="60.00" end="90.00" id="12" nVehContrib="1" flow="120.00" occupancy="1.36" speed="12.26" length="5.00" nVehEntered="1"/>
   <interval begin="60.00" end="90.00" id="13" nVehContrib="0" flow="0.00" occupancy="0.00" speed="-1.00" length="-1.00" nVehEntered="0"/>
   <interval begin="60.00" end="90.00" id="14" nVehContrib="0" flow="0.00" occupancy="0.00" speed="-1.00" length="-1.00" nVehEntered="0"/>
   <interval begin="60.00" end="90.00" id="15" nVehContrib="0" flow="0.00" occupancy="0.00" speed="-1.00" length="-1.00" nVehEntered="0"/>
   <interval begin="90.00" end="120.00" id="0" nVehContrib="0" flow="0.00" occupancy="0.00" speed="-1.00" length="-1.00" nVehEntered="0"/>
   <interval begin="90.00" end="120.00" id="1" nVehContrib="1" flow="120.00" occupancy="1.51" speed="11.04" length="5.00" nVehEntered="1"/>
   <interval begin="90.00" end="120.00" id="2" nVehContrib="0" flow="0.00" occupancy="0.00" speed="-1.00" length="-1.00" nVehEntered="0"/>
   <interval begin="90.00" end="120.00" id="3" nVehContrib="0" flow="0.00" occupancy="0.00" speed="-1.00" length="-1.00" nVehEntered="0"/>
   <interval begin="90.00" end="120.00" id="4" nVehContrib="1" flow="120.00" occupancy="1.01" speed="16.52" length="5.00" nVehEntered="1"/>
   <interval begin="90.00" end="120.00" id="5" nVehContrib="2" flow="240.00" occupancy="2.82" speed="11.82" length="5.00" nVehEntered="2"/>
   <interval begin="90.00" end="120.00" id="6" nVehContrib="1" flow="120.00" occupancy="1.43" speed="11.69" length="5.00" nVehEntered="1"/>
   <interval begin="90.00" end="120.00" id="7" nVehContrib="2" flow="240.00" occupancy="2.07" speed="16.11" length="5.00" nVehEntered="2"/>
   <interval begin="90.00" end="120.00" id="8" nVehContrib="1" flow="120.00" occupancy="1.02" speed="16.31" length="5.00" nVehEntered="1"/>
   <interval begin="90.00" end="120.00" id="9" nVehContrib="3" flow="360.00" occupancy="3.07" speed="16.27" length="5.00" nVehEntered="3"/>
   <interval begin="90.00" end="120.00" id="10" nVehContrib="0" flow="0.00" occupancy="0.00" speed="-1.00" length="-1.00" nVehEntered="0"/>
   <interval begin="90.00" end="120.00" id="11" nVehContrib="2" flow="240.00" occupancy="2.88" speed="11.56" length="5.00" nVehEntered="2"/>
   <interval begin="90.00" end="120.00" id="12" nVehContrib="1" flow="120.00" occupancy="1.55" speed="10.74" length="5.00" nVehEntered="1"/>
   <interval begin="90.00" end="120.00" id="13" nVehContrib="2" flow="240.00" occupancy="2.08" speed="16.05" length="5.00" nVehEntered="2"/>
   <interval begin="90.00" end="120.00" id="14" nVehContrib="0" flow="0.00" occupancy="0.00" speed="-1.00" length="-1.00" nVehEntered="0"/>
   <interval begin="90.00" end="120.00" id="15" nVehContrib="1" flow="120.00" occupancy="1.45" speed="11.47" length="5.00" nVehEntered="1"/>
   <interval begin="120.00" end="150.00" id="0" nVehContrib="3" flow="360.00" occupancy="3.70" speed="13.75" length="5.00" nVehEntered="3"/>
   <interval begin="120.00" end="150.00" id="1" nVehContrib="0" flow="0.00" occupancy="0.00" speed="-1.00" length="-1.00" nVehEntered="0"/>
   <interval begin="120.00" end="150.00" id="2" nVehContrib="1" flow="120.00" occupancy="1.01" speed="16.53" length="5.00" nVehEntered="1"/>
   <interval begin="120.00" end="150.00" id="3" nVehContrib="1" flow="120.00" occupancy="1.02" speed="16.29" length="5.00" nVehEntered="1"/>
   <interval begin="120.00" end="150.00" id="4" nVehContrib="1" flow="120.00" occupancy="1.01" speed="16.48" length="5.00" nVehEntered="1"/>
   <interval begin="120.00" end="150.00" id="5" nVehContrib="3" flow="360.00" occupancy="36.13" speed="9.61" length="5.00" nVehEntered="3"/>
   <interval begin="120.00" end="150.00" id="6" nVehContrib="1" flow="120.00" occupancy="1.00" speed="16.60" length="5.00" nVehEntered="1"/>
   <interval begin="120.00" end="150.00" id="7" nVehContrib="1" flow="120.00" occupancy="1.14" speed="14.62" length="5.00" nVehEntered="1"/>
   <interval begin="120.00" end="150.00" id="8" nVehContrib="3" flow="360.00" occupancy="4.01" speed="12.82" length="5.00" nVehEntered="3"/>
   <interval begin="120.00" end="150.00" id="9" nVehContrib="5" flow="600.00" occupancy="5.07" speed="16.44" length="5.00" nVehEntered="5"/>
   <interval begin="120.00" end="150.00" id="10" nVehContrib="2" flow="240.00" occupancy="2.87" speed="11.61" length="5.00" nVehEntered="2"/>
   <interval begin="120.00" end="150.00" id="11" nVehContrib="0" flow="0.00" occupancy="0.00" speed="-1.00" length="-1.00" nVehEntered="0"/>
   <interval begin="120.00" end="150.00" id="12" nVehContrib="1" flow="120.00" occupancy="1.00" speed="16.61" length="5.00" nVehEntered="1"/>
   <interval begin="120.00" end="150.00" id="13" nVehContrib="2" flow="240.00" occupancy="2.07" speed="16.08" length="5.00" nVehEntered="2"/>
   <interval begin="120.00" end="150.00" id="14" nVehContrib="1" flow="120.00" occupancy="1.01" speed="16.45" length="5.00" nVehEntered="1"/>
   <interval begin="120.00" end="150.00" id="15" nVehContrib="0" flow="0.00" occupancy="0.00" speed="-1.00" length="-1.00" nVehEntered="0"/>
   <interval begin="150.00" end="180.00" id="0" nVehContrib="0" flow="0.00" occupancy="0.00" speed="-1.00" length="-1.00" nVehEntered="0"/>
   <interval begin="150.00" end="180.00" id="1" nVehContrib="0" flow="0.00" occupancy="0.00" speed="-1.00" length="-1.00" nVehEntered="0"/>
   <interval begin="150.00" end="180.00" id="2" nVehContrib="0" flow="0.00" occupancy="0.00" speed="-1.00" length="-1.00" nVehEntered="0"/>
   <interval begin="150.00" end="180.00" id="3" nVehContrib="2" flow="240.00" occupancy="2.01" speed="16.60" length="5.00" nVehEntered="2"/>
   <interval begin="150.00" end="180.00" id="4" nVehContrib="1" flow="120.00" occupancy="1.01" speed="16.50" length="5.00" nVehEntered="1"/>
   <interval begin="150.00" end="180.00" id="5" nVehContrib="0" flow="0.00" occupancy="100.00" speed="-1.00" length="-1.00" nVehEntered="0"/>
   <interval begin="150.00" end="180.00" id="6" nVehContrib="1" flow="120.00" occupancy="1.35" speed="12.34" length="5.00" nVehEntered="1"/>
   <interval begin="150.00" end="180.00" id="7" nVehContrib="1" flow="120.00" occupancy="1.30" speed="12.81" length="5.00" nVehEntered="1"/>
   <interval begin="150.00" end="180.00" id="8" nVehContrib="1" flow="120.00" occupancy="3.04" speed="5.49" length="5.00" nVehEntered="1"/>
   <interval begin="150.00" end="180.00" id="9" nVehContrib="2" flow="240.00" occupancy="2.03" speed="16.44" length="5.00" nVehEntered="2"/>
   <interval begin="150.00" end="180.00" id="10" nVehContrib="2" flow="240.00" occupancy="2.97" speed="11.24" length="5.00" nVehEntered="2"/>
   <interval begin="150.00" end="180.00" id="11" nVehContrib="0" flow="0.00" occupancy="0.00" speed="-1.00" length="-1.00" nVehEntered="0"/>
   <interval begin="150.00" end="180.00" id="12" nVehContrib="0" flow="0.00" occupancy="0.00" speed="-1.00" length="-1.00" nVehEntered="0"/>
   <interval begin="150.00" end="180.00" id="13" nVehContrib="1" flow="120.00" occupancy="1.11" speed="15.08" length="5.00" nVehEntered="1"/>
   <interval begin="150.00" end="180.00" id="14" nVehContrib="1" flow="120.00" occupancy="1.02" speed="16.37" length="5.00" nVehEntered="1"/>
   <interval begin="150.00" end="180.00" id="15" nVehContrib="1" flow="120.00" occupancy="1.45" speed="11.50" length="5.00" nVehEntered="1"/>
   <interval begin="180.00" end="210.00" id="0" nVehContrib="1" flow="120.00" occupancy="1.01" speed="16.51" length="5.00" nVehEntered="1"/>
   <interval begin="180.00" end="210.00" id="1" nVehContrib="3" flow="360.00" occupancy="3.70" speed="13.63" length="5.00" nVehEntered="3"/>
   <interval begin="180.00" end="210.00" id="2" nVehContrib="1" flow="120.00" occupancy="1.01" speed="16.45" length="5.00" nVehEntered="1"/>
   <interval begin="180.00" end="210.00" id="3" nVehContrib="1" flow="120.00" occupancy="1.02" speed="16.30" length="5.00" nVehEntered="1"/>
   <interval begin="180.00" end="210.00" id="4" nVehContrib="1" flow="120.00" occupancy="1.01" speed="16.52" length="5.00" nVehEntered="1"/>
   <interval begin="180.00" end="210.00" id="5" nVehContrib="0" flow="0.00" occupancy="100.00" speed="-1.00" length="-1.00" nVehEntered="0"/>
   <interval begin="180.00" end="210.00" id="6" nVehContrib="1" flow="120.00" occupancy="1.40" speed="11.89" length="5.00" nVehEntered="1"/>
   <interval begin="180.00" end="210.00" id="7" nVehContrib="0" flow="0.00" occupancy="0.00" speed="-1.00" length="-1.00" nVehEntered="0"/>
   <interval begin="180.00" end="210.00" id="8" nVehContrib="1" flow="120.00" occupancy="1.02" speed="16.40" length="5.00" nVehEntered="1"/>
   <interval begin="180.00" end="210.00" id="9" nVehContrib="0" flow="0.00" occupancy="0.00" speed="-1.00" length="-1.00" nVehEntered="0"/>
   <interval begin="180.00" end="210.00" id="10" nVehContrib="1" flow="120.00" occupancy="1.80" speed="9.26" length="5.00" nVehEntered="1"/>
   <interval begin="180.00" end="210.00" id="11" nVehContrib="2" flow="240.00" occupancy="2.05" speed="16.26" length="5.00" nVehEntered="2"/>
   <interval begin="180.00" end="210.00" id="12" nVehContrib="5" flow="600.00" occupancy="6.88" speed="12.14" length="5.00" nVehEntered="5"/>
   <interval begin="180.00" end="210.00" id="13" nVehContrib="2" flow="240.00" occupancy="2.11" speed="15.82" length="5.00" nVehEntered="2"/>
   <interval begin="180.00" end="210.00" id="14" nVehContrib="2" flow="240.00" occupancy="2.07" speed="16.13" length="5.00" nVehEntered="2"/>
   <interval begin="180.00" end="210.00" id="15" nVehContrib="2" flow="240.00" occupancy="2.80" speed="11.94" length="5.00" nVehEntered="2"/>
   <interval begin="210.00" end="240.00" id="0" nVehContrib="2" flow="240.00" occupancy="2.84" speed="11.75" length="5.00" nVehEntered="2"/>
   <interval begin="210.00" end="240.00" id="1" nVehContrib="2" flow="240.00" occupancy="37.41" speed="9.21" length="5.00" nVehEntered="2"/>
   <interval begin="210.00" end="240.00" id="2" nVehContrib="0" flow="0.00" occupancy="0.00" speed="-1.00" length="-1.00" nVehEntered="0"/>
   <interval begin="210.00" end="240.00" id="3" nVehContrib="0" flow="0.00" occupancy="0.00" speed="-1.00" length="-1.00" nVehEntered="0"/>
   <interval begin="210.00" end="240.00" id="4" nVehContrib="2" flow="240.00" occupancy="2.03" speed="16.38" length="5.00" nVehEntered="2"/>
   <interval begin="210.00" end="240.00" id="5" nVehContrib="3" flow="360.00" occupancy="65.13" speed="1.96" length="5.00" nVehEntered="3"/>
   <interval begin="210.00" end="240.00" id="6" nVehContrib="0" flow="0.00" occupancy="0.00" speed="-1.00" length="-1.00" nVehEntered="0"/>
   <interval begin="210.00" end="240.00" id="7" nVehContrib="2" flow="240.00" occupancy="2.66" speed="12.68" length="5.00" nVehEntered="2"/>
   <interval begin="210.00" end="240.00" id="8" nVehContrib="0" flow="0.00" occupancy="0.00" speed="-1.00" length="-1.00" nVehEntered="0"/>
   <interval begin="210.00" end="240.00" id="9" nVehContrib="6" flow="720.00" occupancy="6.11" speed="16.38" length="5.00" nVehEntered="6"/>
   <interval begin="210.00" end="240.00" id="10" nVehContrib="1" flow="120.00" occupancy="1.50" speed="11.10" length="5.00" nVehEntered="1"/>
   <interval begin="210.00" end="240.00" id="11" nVehContrib="1" flow="120.00" occupancy="1.47" speed="11.35" length="5.00" nVehEntered="1"/>
   <interval begin="210.00" end="240.00" id="12" nVehContrib="0" flow="0.00" occupancy="0.00" speed="-1.00" length="-1.00" nVehEntered="0"/>
   <interval begin="210.00" end="240.00" id="13" nVehContrib="3" flow="360.00" occupancy="3.41" speed="14.73" length="5.00" nVehEntered="3"/>
   <interval begin="210.00" end="240.00" id="14" nVehContrib="2" flow="240.00" occupancy="2.01" speed="16.62" length="5.00" nVehEntered="2"/>
   <interval begin="210.00" end="240.00" id="15" nVehContrib="0" flow="0.00" occupancy="0.00" speed="-1.00" length="-1.00" nVehEntered="0"/>
   <interval begin="240.00" end="270.00" id="0" nVehContrib="4" flow="480.00" occupancy="7.25" speed="9.91" length="5.00" nVehEntered="4"/>
   <interval begin="240.00" end="270.00" id="1" nVehContrib="3" flow="360.00" occupancy="84.07" speed="1.15" length="5.00" nVehEntered="3"/>
   <interval begin="240.00" end="270.00" id="2" nVehContrib="1" flow="120.00" occupancy="1.01" speed="16.45" length="5.00" nVehEntered="1"/>
   <interval begin="240.00" end="270.00" id="3" nVehContrib="0" flow="0.00" occupancy="0.00" speed="-1.00" length="-1.00" nVehEntered="0"/>
   <interval begin="240.00" end="270.00" id="4" nVehContrib="2" flow="240.00" occupancy="2.03" speed="16.41" length="5.00" nVehEntered="2"/>
   <interval begin="240.00" end="270.00" id="5" nVehContrib="3" flow="360.00" occupancy="82.97" speed="5.37" length="5.00" nVehEntered="3"/>
   <interval begin="240.00" end="270.00" id="6" nVehContrib="2" flow="240.00" occupancy="2.82" speed="11.81" length="5.00" nVehEntered="2"/>
   <interval begin="240.00" end="270.00" id="7" nVehContrib="1" flow="120.00" occupancy="1.00" speed="16.66" length="5.00" nVehEntered="1"/>
   <interval begin="240.00" end="270.00" id="8" nVehContrib="0" flow="0.00" occupancy="0.00" speed="-1.00" length="-1.00" nVehEntered="0"/>
   <interval begin="240.00" end="270.00" id="9" nVehContrib="3" flow="360.00" occupancy="3.40" speed="14.92" length="5.00" nVehEntered="3"/>
   <interval begin="240.00" end="270.00" id="10" nVehContrib="1" flow="120.00" occupancy="2.08" speed="8.03" length="5.00" nVehEntered="1"/>
   <interval begin="240.00" end="270.00" id="11" nVehContrib="2" flow="240.00" occupancy="2.95" speed="11.31" length="5.00" nVehEntered="2"/>
   <interval begin="240.00" end="270.00" id="12" nVehContrib="2" flow="240.00" occupancy="2.75" speed="12.13" length="5.00" nVehEntered="2"/>
   <interval begin="240.00" end="270.00" id="13" nVehContrib="4" flow="480.00" occupancy="20.13" speed="5.28" length="5.00" nVehEntered="4"/>
   <interval begin="240.00" end="270.00" id="14" nVehContrib="1" flow="120.00" occupancy="1.01" speed="16.44" length="5.00" nVehEntered="1"/>
   <interval begin="240.00" end="270.00" id="15" nVehContrib="3" flow="360.00" occupancy="4.17" speed="12.00" length="5.00" nVehEntered="3"/>
   <interval begin="270.00" end="300.00" id="0" nVehContrib="3" flow="360.00" occupancy="6.31" speed="8.13" length="5.00" nVehEntered="3"/>
   <interval begin="270.00" end="300.00" id="1" nVehContrib="2" flow="240.00" occupancy="85.98" speed="1.36" length="5.00" nVehEntered="2"/>
   <interval begin="270.00" end="300.00" id="2" nVehContrib="1" flow="120.00" occupancy="1.06" speed="15.73" length="5.00" nVehEntered="1"/>
   <interval begin="270.00" end="300.00" id="3" nVehContrib="3" flow="360.00" occupancy="3.03" speed="16.48" length="5.00" nVehEntered="3"/>
   <interval begin="270.00" end="300.00" id="4" nVehContrib="1" flow="120.00" occupancy="1.01" speed="16.44" length="5.00" nVehEntered="1"/>
   <interval begin="270.00" end="300.00" id="5" nVehContrib="2" flow="240.00" occupancy="55.98" speed="1.44" length="5.00" nVehEntered="2"/>
   <interval begin="270.00" end="300.00" id="6" nVehContrib="4" flow="480.00" occupancy="5.82" speed="11.48" length="5.00" nVehEntered="4"/>
   <interval begin="270.00" end="300.00" id="7" nVehContrib="4" flow="480.00" occupancy="4.46" speed="15.01" length="5.00" nVehEntered="4"/>
   <interval begin="270.00" end="300.00" id="8" nVehContrib="7" flow="840.00" occupancy="7.09" speed="16.46" length="5.00" nVehEntered="7"/>
   <interval begin="270.00" end="300.00" id="9" nVehContrib="0" flow="0.00" occupancy="0.00" speed="-1.00" length="-1.00" nVehEntered="0"/>
   <interval begin="270.00" end="300.00" id="10" nVehContrib="0" flow="0.00" occupancy="0.00" speed="-1.00" length="-1.00" nVehEntered="0"/>
   <interval begin="270.00" end="300.00" id="11" nVehContrib="1" flow="120.00" occupancy="1.39" speed="12.01" length="5.00" nVehEntered="1"/>
   <interval begin="270.00" end="300.00" id="12" nVehContrib="6" flow="720.00" occupancy="9.31" speed="12.64" length="5.00" nVehEntered="6"/>
   <interval begin="270.00" end="300.00" id="13" nVehContrib="0" flow="0.00" occupancy="0.02" speed="-1.00" length="-1.00" nVehEntered="0"/>
   <interval begin="270.00" end="300.00" id="14" nVehContrib="1" flow="120.00" occupancy="1.01" speed="16.54" length="5.00" nVehEntered="1"/>
   <interval begin="270.00" end="300.00" id="15" nVehContrib="0" flow="0.00" occupancy="0.00" speed="-1.00" length="-1.00" nVehEntered="0"/>
   <interval begin="300.00" end="330.00" id="0" nVehContrib="2" flow="240.00" occupancy="40.20" speed="1.71" length="5.00" nVehEntered="2"/>
   <interval begin="300.00" end="330.00" id="1" nVehContrib="1" flow="120.00" occupancy="86.75" speed="2.80" length="5.00" nVehEntered="1"/>
   <interval begin="300.00" end="330.00" id="2" nVehContrib="2" flow="240.00" occupancy="2.01" speed="16.60" length="5.00" nVehEntered="2"/>
   <interval begin="300.00" end="330.00" id="3" nVehContrib="2" flow="240.00" occupancy="2.03" speed="16.41" length="5.00" nVehEntered="2"/>
   <interval begin="300.00" end="330.00" id="4" nVehContrib="2" flow="240.00" occupancy="2.02" speed="16.46" length="5.00" nVehEntered="2"/>
   <interval begin="300.00" end="330.00" id="5" nVehContrib="0" flow="0.00" occupancy="0.00" speed="-1.00" length="-1.00" nVehEntered="0"/>
   <interval begin="300.00" end="330.00" id="6" nVehContrib="2" flow="240.00" occupancy="44.05" speed="8.71" length="5.00" nVehEntered="2"/>
   <interval begin="300.00" end="330.00" id="7" nVehContrib="2" flow="240.00" occupancy="2.94" speed="11.53" length="5.00" nVehEntered="2"/>
   <interval begin="300.00" end="330.00" id="8" nVehContrib="3" flow="360.00" occupancy="3.03" speed="16.50" length="5.00" nVehEntered="3"/>
   <interval begin="300.00" end="330.00" id="9" nVehContrib="3" flow="360.00" occupancy="6.35" speed="8.41" length="5.00" nVehEntered="3"/>
   <interval begin="300.00" end="330.00" id="10" nVehContrib="1" flow="120.00" occupancy="1.01" speed="16.48" length="5.00" nVehEntered="1"/>
   <interval begin="300.00" end="330.00" id="11" nVehContrib="1" flow="120.00" occupancy="1.36" speed="12.23" length="5.00" nVehEntered="1"/>
   <interval begin="300.00" end="330.00" id="12" nVehContrib="4" flow="480.00" occupancy="58.33" speed="6.87" length="5.00" nVehEntered="4"/>
   <interval begin="300.00" end="330.00" id="13" nVehContrib="2" flow="240.00" occupancy="15.61" speed="2.44" length="5.00" nVehEntered="2"/>
   <interval begin="300.00" end="330.00" id="14" nVehContrib="1" flow="120.00" occupancy="1.01" speed="16.53" length="5.00" nVehEntered="1"/>
   <interval begin="300.00" end="330.00" id="15" nVehContrib="2" flow="240.00" occupancy="2.91" speed="11.47" length="5.00" nVehEntered="2"/>
   <interval begin="330.00" end="360.00" id="0" nVehContrib="1" flow="120.00" occupancy="99.88" speed="0.15" length="5.00" nVehEntered="1"/>
   <interval begin="330.00" end="360.00" id="1" nVehContrib="9" flow="1080.00" occupancy="43.66" speed="5.05" length="5.00" nVehEntered="9"/>
   <interval begin="330.00" end="360.00" id="2" nVehContrib="2" flow="240.00" occupancy="2.25" speed="14.82" length="5.00" nVehEntered="2"/>
   <interval begin="330.00" end="360.00" id="3" nVehContrib="1" flow="120.00" occupancy="1.01" speed="16.47" length="5.00" nVehEntered="1"/>
   <interval begin="330.00" end="360.00" id="4" nVehContrib="1" flow="120.00" occupancy="1.02" speed="16.28" length="5.00" nVehEntered="1"/>
   <interval begin="330.00" end="360.00" id="5" nVehContrib="2" flow="240.00" occupancy="12.48" speed="8.33" length="5.00" nVehEntered="2"/>
   <interval begin="330.00" end="360.00" id="6" nVehContrib="6" flow="720.00" occupancy="8.95" speed="10.77" length="5.00" nVehEntered="6"/>
   <interval begin="330.00" end="360.00" id="7" nVehContrib="1" flow="120.00" occupancy="1.34" speed="12.42" length="5.00" nVehEntered="1"/>
   <interval begin="330.00" end="360.00" id="8" nVehContrib="3" flow="360.00" occupancy="3.18" speed="15.74" length="5.00" nVehEntered="3"/>
   <interval begin="330.00" end="360.00" id="9" nVehContrib="2" flow="240.00" occupancy="8.05" speed="4.46" length="5.00" nVehEntered="2"/>
   <interval begin="330.00" end="360.00" id="10" nVehContrib="0" flow="0.00" occupancy="0.00" speed="-1.00" length="-1.00" nVehEntered="0"/>
   <interval begin="330.00" end="360.00" id="11" nVehContrib="6" flow="720.00" occupancy="11.35" speed="9.22" length="5.00" nVehEntered="6"/>
   <interval begin="330.00" end="360.00" id="12" nVehContrib="6" flow="720.00" occupancy="11.41" speed="9.91" length="5.00" nVehEntered="6"/>
   <interval begin="330.00" end="360.00" id="13" nVehContrib="2" flow="240.00" occupancy="17.67" speed="2.15" length="5.00" nVehEntered="2"/>
   <interval begin="330.00" end="360.00" id="14" nVehContrib="1" flow="120.00" occupancy="1.02" speed="16.32" length="5.00" nVehEntered="1"/>
   <interval begin="330.00" end="360.00" id="15" nVehContrib="2" flow="240.00" occupancy="2.82" speed="11.81" length="5.00" nVehEntered="2"/>
   <interval begin="360.00" end="390.00" id="0" nVehContrib="6" flow="720.00" occupancy="18.43" speed="6.56" length="5.00" nVehEntered="6"/>
   <interval begin="360.00" end="390.00" id="1" nVehContrib="0" flow="0.00" occupancy="100.00" speed="-1.00" length="-1.00" nVehEntered="0"/>
   <interval begin="360.00" end="390.00" id="2" nVehContrib="3" flow="360.00" occupancy="3.03" speed="16.51" length="5.00" nVehEntered="3"/>
   <interval begin="360.00" end="390.00" id="3" nVehContrib="0" flow="0.00" occupancy="0.00" speed="-1.00" length="-1.00" nVehEntered="0"/>
   <interval begin="360.00" end="390.00" id="4" nVehContrib="3" flow="360.00" occupancy="3.10" speed="16.15" length="5.00" nVehEntered="3"/>
   <interval begin="360.00" end="390.00" id="5" nVehContrib="1" flow="120.00" occupancy="50.58" speed="0.28" length="5.00" nVehEntered="1"/>
   <interval begin="360.00" end="390.00" id="6" nVehContrib="4" flow="480.00" occupancy="5.86" speed="11.38" length="5.00" nVehEntered="4"/>
   <interval begin="360.00" end="390.00" id="7" nVehContrib="2" flow="240.00" occupancy="2.73" speed="13.04" length="5.00" nVehEntered="2"/>
   <interval begin="360.00" end="390.00" id="8" nVehContrib="1" flow="120.00" occupancy="1.03" speed="16.17" length="5.00" nVehEntered="1"/>
   <interval begin="360.00" end="390.00" id="9" nVehContrib="3" flow="360.00" occupancy="17.60" speed="3.47" length="5.00" nVehEntered="3"/>
   <interval begin="360.00" end="390.00" id="10" nVehContrib="1" flow="120.00" occupancy="1.00" speed="16.59" length="5.00" nVehEntered="1"/>
   <interval begin="360.00" end="390.00" id="11" nVehContrib="1" flow="120.00" occupancy="41.69" speed="0.40" length="5.00" nVehEntered="1"/>
   <interval begin="360.00" end="390.00" id="12" nVehContrib="2" flow="240.00" occupancy="2.80" speed="11.92" length="5.00" nVehEntered="2"/>